; Production NPT MD
; Force field: CHARMM36
; Purpose: Production molecular dynamics simulation
; Use: Main simulation run with Parrinello-Rahman barostat
; Compatible with: gmx_continue_grompp.sh (nsteps/tinit will be overridden)

title                   = charmm36,production_npt

; RUN CONTROL
integrator              = md
dt                      = 0.002         ; 2 fs
nsteps                  = 0             ; Set by continuation script
tinit                   = 0             ; Set by continuation script

; OUTPUT CONTROL
nstxout                 = 0             ; Don't save full precision coords
nstvout                 = 0             ; Don't save velocities
nstfout                 = 0             ; Don't save forces
nstlog                  = 50000         ; Log every 100 ps
nstenergy               = 50000         ; Energy every 100 ps
nstxout-compressed      = 5000          ; Compressed trajectory every 10 ps
compressed-x-grps       = System

; NEIGHBOR SEARCHING
cutoff-scheme           = Verlet
nstlist                 = 10
ns_type                 = grid
pbc                     = xyz

; ELECTROSTATICS
coulombtype             = PME
rcoulomb                = 1.2
pme_order               = 4
fourierspacing          = 0.12

; VAN DER WAALS
vdwtype                 = Cut-off
vdw-modifier            = Force-switch
rvdw-switch             = 1.0
rvdw                    = 1.2
DispCorr                = EnerPres

; TEMPERATURE COUPLING
tcoupl                  = V-rescale
tc-grps                 = System
tau_t                   = 0.1
ref_t                   = 300

; PRESSURE COUPLING
pcoupl                  = Parrinello-Rahman  ; Production-quality barostat
pcoupltype              = isotropic
tau_p                   = 2.0
ref_p                   = 1.0
compressibility         = 4.5e-5

; CONSTRAINTS
constraints             = all-bonds
constraint-algorithm    = lincs
lincs-order             = 4
lincs-iter              = 1

; VELOCITY GENERATION
gen_vel                 = no            ; Continue from equilibration
