; NPT Equilibration with Backbone Position Restraints
; Force field: AMBER14SB
; Purpose: Equilibrate with protein backbone restrained
; Use: Allows side chains and solvent to equilibrate freely

title                   = amber14sb,npt_equilibration_posres_backbone
define                  = -DPOSRES_BB   ; Restrain backbone atoms only

; RUN CONTROL
integrator              = md
dt                      = 0.002         ; 2 fs
nsteps                  = 50000         ; 100 ps (adjust as needed)
tinit                   = 0

; OUTPUT CONTROL
nstxout                 = 0
nstvout                 = 0
nstfout                 = 0
nstlog                  = 5000
nstenergy               = 5000
nstxout-compressed      = 5000
compressed-x-grps       = System

; NEIGHBOR SEARCHING
cutoff-scheme           = Verlet
nstlist                 = 10
ns_type                 = grid
pbc                     = xyz

; ELECTROSTATICS
coulombtype             = PME
rcoulomb                = 1.0
pme_order               = 4
fourierspacing          = 0.12

; VAN DER WAALS
vdwtype                 = Cut-off
vdw-modifier            = Potential-shift-verlet
rvdw                    = 1.0
DispCorr                = EnerPres

; TEMPERATURE COUPLING
tcoupl                  = V-rescale
tc-grps                 = System
tau_t                   = 0.1
ref_t                   = 300

; PRESSURE COUPLING
pcoupl                  = Berendsen
pcoupltype              = isotropic
tau_p                   = 2.0
ref_p                   = 1.0
compressibility         = 4.5e-5

; CONSTRAINTS
constraints             = h-bonds
constraint-algorithm    = lincs
lincs-order             = 4
lincs-iter              = 1

; VELOCITY GENERATION
gen_vel                 = no

; NOTE: Create posre_bb.itp with gmx genrestr selecting backbone
